# vtk DataFile Version 3.0
AMR mesh
ASCII
DATASET UNSTRUCTURED_GRID
POINTS 310 double
0 0 0
0 0.5 0
0 1 0
0 0.5 0.5
0 0.75 0.5
0 1 0.5
0 1 1
0 1 1
0 1 1
0.5 0.5 0
0.5 0.75 0
0.5 1 0
0.5 0.75 0.25
0.5 0.875 0.25
0.5 1 0.25
0.5 1 0.5
0.5 1 0.5
0.5 1 0.5
1 1 0
1 1 0
1 1 0
1 1 0
1 1 0
1 1 0
1 1 0
1 1 0
1 1 0
1 0 0
0.5 0.5 0.5
0 1 1
0.5 0 0
0.25 0.25 0.25
0 0.5 0.5
0 0 0
0 0 0
0 0 0
0.5 0 0.5
0.25 0.25 0.75
0 0.5 1
0.25 0 0.5
0.125 0.125 0.625
0 0.25 0.75
0 0 0.5
0 0 0.5
0 0 0.5
0 0 1
0 0 1
0 0 1
0 0 1
0 0 1
0 0 1
0 0 1
0 0 1
0 0 1
1 0 0
0.666667 0 0
0.333333 0 0
0 0 0
0.666667 0.333333 0.333333
0.444444 0.333333 0.333333
0.222222 0.333333 0.333333
0 0.333333 0.333333
0.333333 0.666667 0.666667
0.222222 0.666667 0.666667
0.111111 0.666667 0.666667
0 0.666667 0.666667
0 1 1
0 1 1
0 1 1
0 1 1
1 0.333333 0
0.777778 0.333333 0
0.555556 0.333333 0
0.333333 0.333333 0
0.777778 0.555556 0.222222
0.62963 0.555556 0.222222
0.481481 0.555556 0.222222
0.333333 0.555556 0.222222
0.555556 0.777778 0.444444
0.481481 0.777778 0.444444
0.407407 0.777778 0.444444
0.333333 0.777778 0.444444
0.333333 1 0.666667
0.333333 1 0.666667
0.333333 1 0.666667
0.333333 1 0.666667
1 0.666667 0
0.888889 0.666667 0
0.777778 0.666667 0
0.666667 0.666667 0
0.888889 0.777778 0.111111
0.814815 0.777778 0.111111
0.740741 0.777778 0.111111
0.666667 0.777778 0.111111
0.777778 0.888889 0.222222
0.740741 0.888889 0.222222
0.703704 0.888889 0.222222
0.666667 0.888889 0.222222
0.666667 1 0.333333
0.666667 1 0.333333
0.666667 1 0.333333
0.666667 1 0.333333
1 1 0
1 1 0
1 1 0
1 1 0
1 1 0
1 1 0
1 1 0
1 1 0
1 1 0
1 1 0
1 1 0
1 1 0
1 1 0
1 1 0
1 1 0
1 1 0
1 0 0
0.666667 0.333333 0.333333
0.333333 0.666667 0.666667
0 1 1
0.666667 0 0.333333
0.444444 0.222222 0.555556
0.222222 0.444444 0.777778
0 0.666667 1
0.333333 0 0.666667
0.222222 0.111111 0.777778
0.111111 0.222222 0.888889
0 0.333333 1
0 0 1
0 0 1
0 0 1
0 0 1
1 0 0.333333
0.777778 0.222222 0.555556
0.555556 0.444444 0.777778
0.333333 0.666667 1
0.777778 0 0.555556
0.62963 0.148148 0.703704
0.481481 0.296296 0.851852
0.333333 0.444444 1
0.555556 0 0.777778
0.481481 0.0740741 0.851852
0.407407 0.148148 0.925926
0.333333 0.222222 1
0.333333 0 1
0.333333 0 1
0.333333 0 1
0.333333 0 1
1 0 0.666667
0.888889 0.111111 0.777778
0.777778 0.222222 0.888889
0.666667 0.333333 1
0.888889 0 0.777778
0.814815 0.0740741 0.851852
0.740741 0.148148 0.925926
0.666667 0.222222 1
0.777778 0 0.888889
0.740741 0.037037 0.925926
0.703704 0.0740741 0.962963
0.666667 0.111111 1
0.666667 0 1
0.666667 0 1
0.666667 0 1
0.666667 0 1
1 0 1
1 0 1
1 0 1
1 0 1
1 0 1
1 0 1
1 0 1
1 0 1
1 0 1
1 0 1
1 0 1
1 0 1
1 0 1
1 0 1
1 0 1
1 0 1
1 0 0
1 0.333333 0
1 0.666667 0
1 1 0
0.666667 0.333333 0.333333
0.666667 0.555556 0.333333
0.666667 0.777778 0.333333
0.666667 1 0.333333
0.333333 0.666667 0.666667
0.333333 0.777778 0.666667
0.333333 0.888889 0.666667
0.333333 1 0.666667
0 1 1
0 1 1
0 1 1
0 1 1
1 0 0.333333
1 0.222222 0.333333
1 0.444444 0.333333
1 0.666667 0.333333
0.777778 0.222222 0.555556
0.777778 0.37037 0.555556
0.777778 0.518519 0.555556
0.777778 0.666667 0.555556
0.555556 0.444444 0.777778
0.555556 0.518519 0.777778
0.555556 0.592593 0.777778
0.555556 0.666667 0.777778
0.333333 0.666667 1
0.333333 0.666667 1
0.333333 0.666667 1
0.333333 0.666667 1
1 0 0.666667
1 0.111111 0.666667
1 0.222222 0.666667
1 0.333333 0.666667
0.888889 0.111111 0.777778
0.888889 0.185185 0.777778
0.888889 0.259259 0.777778
0.888889 0.333333 0.777778
0.777778 0.222222 0.888889
0.777778 0.259259 0.888889
0.777778 0.296296 0.888889
0.777778 0.333333 0.888889
0.666667 0.333333 1
0.666667 0.333333 1
0.666667 0.333333 1
0.666667 0.333333 1
1 0 1
1 0 1
1 0 1
1 0 1
1 0 1
1 0 1
1 0 1
1 0 1
1 0 1
1 0 1
1 0 1
1 0 1
1 0 1
1 0 1
1 0 1
1 0 1
0 1 1
0.333333 0.666667 1
0.666667 0.333333 1
1 0 1
0.333333 1 0.666667
0.555556 0.777778 0.666667
0.777778 0.555556 0.666667
1 0.333333 0.666667
0.666667 1 0.333333
0.777778 0.888889 0.333333
0.888889 0.777778 0.333333
1 0.666667 0.333333
1 1 0
1 1 0
1 1 0
1 1 0
0.333333 1 1
0.555556 0.777778 1
0.777778 0.555556 1
1 0.333333 1
0.555556 1 0.777778
0.703704 0.851852 0.777778
0.851852 0.703704 0.777778
1 0.555556 0.777778
0.777778 1 0.555556
0.851852 0.925926 0.555556
0.925926 0.851852 0.555556
1 0.777778 0.555556
1 1 0.333333
1 1 0.333333
1 1 0.333333
1 1 0.333333
0.666667 1 1
0.777778 0.888889 1
0.888889 0.777778 1
1 0.666667 1
0.777778 1 0.888889
0.851852 0.925926 0.888889
0.925926 0.851852 0.888889
1 0.777778 0.888889
0.888889 1 0.777778
0.925926 0.962963 0.777778
0.962963 0.925926 0.777778
1 0.888889 0.777778
1 1 0.666667
1 1 0.666667
1 1 0.666667
1 1 0.666667
1 1 1
1 1 1
1 1 1
1 1 1
1 1 1
1 1 1
1 1 1
1 1 1
1 1 1
1 1 1
1 1 1
1 1 1
1 1 1
1 1 1
1 1 1
1 1 1

CELLS 124 1116
8 0 1 4 3 9 10 13 12 
8 1 2 5 4 10 11 14 13 
8 3 4 7 6 12 13 16 15 
8 4 5 8 7 13 14 17 16 
8 9 10 13 12 18 19 22 21 
8 10 11 14 13 19 20 23 22 
8 12 13 16 15 21 22 25 24 
8 13 14 17 16 22 23 26 25 
8 27 28 31 30 36 37 40 39 
8 28 29 32 31 37 38 41 40 
8 30 31 34 33 39 40 43 42 
8 31 32 35 34 40 41 44 43 
8 36 37 40 39 45 46 49 48 
8 37 38 41 40 46 47 50 49 
8 39 40 43 42 48 49 52 51 
8 40 41 44 43 49 50 53 52 
8 54 55 59 58 70 71 75 74 
8 55 56 60 59 71 72 76 75 
8 56 57 61 60 72 73 77 76 
8 58 59 63 62 74 75 79 78 
8 59 60 64 63 75 76 80 79 
8 60 61 65 64 76 77 81 80 
8 62 63 67 66 78 79 83 82 
8 63 64 68 67 79 80 84 83 
8 64 65 69 68 80 81 85 84 
8 70 71 75 74 86 87 91 90 
8 71 72 76 75 87 88 92 91 
8 72 73 77 76 88 89 93 92 
8 74 75 79 78 90 91 95 94 
8 75 76 80 79 91 92 96 95 
8 76 77 81 80 92 93 97 96 
8 78 79 83 82 94 95 99 98 
8 79 80 84 83 95 96 100 99 
8 80 81 85 84 96 97 101 100 
8 86 87 91 90 102 103 107 106 
8 87 88 92 91 103 104 108 107 
8 88 89 93 92 104 105 109 108 
8 90 91 95 94 106 107 111 110 
8 91 92 96 95 107 108 112 111 
8 92 93 97 96 108 109 113 112 
8 94 95 99 98 110 111 115 114 
8 95 96 100 99 111 112 116 115 
8 96 97 101 100 112 113 117 116 
8 118 119 123 122 134 135 139 138 
8 119 120 124 123 135 136 140 139 
8 120 121 125 124 136 137 141 140 
8 122 123 127 126 138 139 143 142 
8 123 124 128 127 139 140 144 143 
8 124 125 129 128 140 141 145 144 
8 126 127 131 130 142 143 147 146 
8 127 128 132 131 143 144 148 147 
8 128 129 133 132 144 145 149 148 
8 134 135 139 138 150 151 155 154 
8 135 136 140 139 151 152 156 155 
8 136 137 141 140 152 153 157 156 
8 138 139 143 142 154 155 159 158 
8 139 140 144 143 155 156 160 159 
8 140 141 145 144 156 157 161 160 
8 142 143 147 146 158 159 163 162 
8 143 144 148 147 159 160 164 163 
8 144 145 149 148 160 161 165 164 
8 150 151 155 154 166 167 171 170 
8 151 152 156 155 167 168 172 171 
8 152 153 157 156 168 169 173 172 
8 154 155 159 158 170 171 175 174 
8 155 156 160 159 171 172 176 175 
8 156 157 161 160 172 173 177 176 
8 158 159 163 162 174 175 179 178 
8 159 160 164 163 175 176 180 179 
8 160 161 165 164 176 177 181 180 
8 182 183 187 186 198 199 203 202 
8 183 184 188 187 199 200 204 203 
8 184 185 189 188 200 201 205 204 
8 186 187 191 190 202 203 207 206 
8 187 188 192 191 203 204 208 207 
8 188 189 193 192 204 205 209 208 
8 190 191 195 194 206 207 211 210 
8 191 192 196 195 207 208 212 211 
8 192 193 197 196 208 209 213 212 
8 198 199 203 202 214 215 219 218 
8 199 200 204 203 215 216 220 219 
8 200 201 205 204 216 217 221 220 
8 202 203 207 206 218 219 223 222 
8 203 204 208 207 219 220 224 223 
8 204 205 209 208 220 221 225 224 
8 206 207 211 210 222 223 227 226 
8 207 208 212 211 223 224 228 227 
8 208 209 213 212 224 225 229 228 
8 214 215 219 218 230 231 235 234 
8 215 216 220 219 231 232 236 235 
8 216 217 221 220 232 233 237 236 
8 218 219 223 222 234 235 239 238 
8 219 220 224 223 235 236 240 239 
8 220 221 225 224 236 237 241 240 
8 222 223 227 226 238 239 243 242 
8 223 224 228 227 239 240 244 243 
8 224 225 229 228 240 241 245 244 
8 246 247 251 250 262 263 267 266 
8 247 248 252 251 263 264 268 267 
8 248 249 253 252 264 265 269 268 
8 250 251 255 254 266 267 271 270 
8 251 252 256 255 267 268 272 271 
8 252 253 257 256 268 269 273 272 
8 254 255 259 258 270 271 275 274 
8 255 256 260 259 271 272 276 275 
8 256 257 261 260 272 273 277 276 
8 262 263 267 266 278 279 283 282 
8 263 264 268 267 279 280 284 283 
8 264 265 269 268 280 281 285 284 
8 266 267 271 270 282 283 287 286 
8 267 268 272 271 283 284 288 287 
8 268 269 273 272 284 285 289 288 
8 270 271 275 274 286 287 291 290 
8 271 272 276 275 287 288 292 291 
8 272 273 277 276 288 289 293 292 
8 278 279 283 282 294 295 299 298 
8 279 280 284 283 295 296 300 299 
8 280 281 285 284 296 297 301 300 
8 282 283 287 286 298 299 303 302 
8 283 284 288 287 299 300 304 303 
8 284 285 289 288 300 301 305 304 
8 286 287 291 290 302 303 307 306 
8 287 288 292 291 303 304 308 307 
8 288 289 293 292 304 305 309 308 
CELL_TYPES 124
12
12
12
12
12
12
12
12
12
12
12
12
12
12
12
12
12
12
12
12
12
12
12
12
12
12
12
12
12
12
12
12
12
12
12
12
12
12
12
12
12
12
12
12
12
12
12
12
12
12
12
12
12
12
12
12
12
12
12
12
12
12
12
12
12
12
12
12
12
12
12
12
12
12
12
12
12
12
12
12
12
12
12
12
12
12
12
12
12
12
12
12
12
12
12
12
12
12
12
12
12
12
12
12
12
12
12
12
12
12
12
12
12
12
12
12
12
12
12
12
12
12
12
12

POINT_DATA 310
SCALARS SolU double 1
LOOKUP_TABLE default
0
0
0
0
0
0
0
0
0
0
0
0
0
0
0
0
0
0
0
0
0
0
0
0
0
0
0
0
0.0097418
0
0
0.00243545
0
0
0
0
-5.40779e-19
0.00243545
-5.40779e-19
-5.40779e-19
0.000608863
-5.40779e-19
0
0
0
1.20077e-34
1.20077e-34
1.20077e-34
1.20077e-34
1.20077e-34
1.20077e-34
1.20077e-34
1.20077e-34
1.20077e-34
0
0
0
0
0.00865938
0.00577292
0.00288646
-3.60519e-19
0.00865938
0.00577292
0.00288646
-1.44208e-18
0
0
0
0
6.85941e-19
4.57294e-19
2.28647e-19
-4.2837e-35
0.00634152
0.00422768
0.00211384
-1.3861e-18
0.00634152
0.00422768
0.00211384
-3.56425e-18
-2.97021e-18
-2.97021e-18
-2.97021e-18
-2.97021e-18
9.5559e-19
6.3706e-19
3.1853e-19
-2.38707e-34
0.00220861
0.0014724
0.000736202
-5.5171e-19
0.00220861
0.0014724
0.000736202
-1.10342e-18
-2.4827e-18
-2.4827e-18
-2.4827e-18
-2.4827e-18
-4.08087e-34
-4.08087e-34
-4.08087e-34
-4.08087e-34
-4.08087e-34
-4.08087e-34
-4.08087e-34
-4.08087e-34
-4.08087e-34
-4.08087e-34
-4.08087e-34
-4.08087e-34
-4.08087e-34
-4.08087e-34
-4.08087e-34
-4.08087e-34
0
0.00865938
0.00865938
0
-7.21038e-19
0.00384861
0.00384861
-7.21038e-19
0
0.000962154
0.000962154
-7.21038e-19
0
0
0
0
-2.00891e-18
0.0071485
0.0071485
-2.00891e-18
4.46424e-19
0.00317711
0.00317711
-3.12497e-18
-1.11606e-18
0.000794278
0.000794278
-2.00891e-18
3.4849e-34
3.4849e-34
3.4849e-34
3.4849e-34
-9.78753e-19
0.0026121
0.0026121
-2.93626e-18
0
0.00116093
0.00116093
-1.305e-18
-6.52502e-19
0.000290233
0.000290233
-6.52502e-19
7.33478e-34
7.33478e-34
7.33478e-34
7.33478e-34
4.28947e-34
4.28947e-34
4.28947e-34
4.28947e-34
4.28947e-34
4.28947e-34
4.28947e-34
4.28947e-34
4.28947e-34
4.28947e-34
4.28947e-34
4.28947e-34
4.28947e-34
4.28947e-34
4.28947e-34
4.28947e-34
0
0
0
0
0.00865938
0.00826583
0.00537937
-8.27565e-19
0.00865938
0.00701937
0.00413291
-2.37617e-18
0
0
0
0
7.73229e-19
9.00247e-19
9.0742e-19
7.9475e-19
0.0071485
0.00795346
0.00801978
0.00734746
0.0071485
0.00758414
0.00765046
0.00734746
-6.78955e-18
-6.78955e-18
-6.78955e-18
-6.78955e-18
1.13017e-18
1.3432e-18
1.49631e-18
1.5895e-18
0.0026121
0.0030583
0.00341218
0.00367373
0.0026121
0.00301214
0.00336602
0.00367373
-7.0659e-18
-7.0659e-18
-7.0659e-18
-7.0659e-18
-1.28942e-33
-1.28942e-33
-1.28942e-33
-1.28942e-33
-1.28942e-33
-1.28942e-33
-1.28942e-33
-1.28942e-33
-1.28942e-33
-1.28942e-33
-1.28942e-33
-1.28942e-33
-1.28942e-33
-1.28942e-33
-1.28942e-33
-1.28942e-33
0
0
0
0
-1.37655e-18
0.00734746
0.00734746
-1.37655e-18
0
0.00367373
0.00367373
-2.75309e-18
0
0
0
0
-9.92643e-35
3.53222e-19
3.53222e-19
-9.92643e-35
3.05899e-19
0.00217702
0.00217702
-2.1413e-18
-1.5295e-18
0.00108851
0.00108851
-2.75309e-18
7.16379e-34
7.16379e-34
7.16379e-34
7.16379e-34
-6.61762e-35
1.76611e-19
1.76611e-19
-1.98529e-34
0
0.000272128
0.000272128
-3.05899e-19
-3.05899e-19
0.000136064
0.000136064
-3.05899e-19
5.15793e-34
5.15793e-34
5.15793e-34
5.15793e-34
4.40822e-50
4.40822e-50
4.40822e-50
4.40822e-50
4.40822e-50
4.40822e-50
4.40822e-50
4.40822e-50
4.40822e-50
4.40822e-50
4.40822e-50
4.40822e-50
4.40822e-50
4.40822e-50
4.40822e-50
4.40822e-50
