# vtk DataFile Version 3.0
AMR mesh
ASCII
DATASET UNSTRUCTURED_GRID
POINTS 384 double
0 0 0
0 0.333333 0
0 0.666667 0
0 1 0
0 0.333333 0.333333
0 0.555556 0.333333
0 0.777778 0.333333
0 1 0.333333
0 0.666667 0.666667
0 0.777778 0.666667
0 0.888889 0.666667
0 1 0.666667
0 1 1
0 1 1
0 1 1
0 1 1
0.333333 0.333333 0
0.333333 0.555556 0
0.333333 0.777778 0
0.333333 1 0
0.333333 0.555556 0.222222
0.333333 0.703704 0.222222
0.333333 0.851852 0.222222
0.333333 1 0.222222
0.333333 0.777778 0.444444
0.333333 0.851852 0.444444
0.333333 0.925926 0.444444
0.333333 1 0.444444
0.333333 1 0.666667
0.333333 1 0.666667
0.333333 1 0.666667
0.333333 1 0.666667
0.666667 0.666667 0
0.666667 0.777778 0
0.666667 0.888889 0
0.666667 1 0
0.666667 0.777778 0.111111
0.666667 0.851852 0.111111
0.666667 0.925926 0.111111
0.666667 1 0.111111
0.666667 0.888889 0.222222
0.666667 0.925926 0.222222
0.666667 0.962963 0.222222
0.666667 1 0.222222
0.666667 1 0.333333
0.666667 1 0.333333
0.666667 1 0.333333
0.666667 1 0.333333
1 1 0
1 1 0
1 1 0
1 1 0
1 1 0
1 1 0
1 1 0
1 1 0
1 1 0
1 1 0
1 1 0
1 1 0
1 1 0
1 1 0
1 1 0
1 1 0
1 0 0
0.666667 0.333333 0.333333
0.333333 0.666667 0.666667
0 1 1
0.666667 0 0
0.444444 0.222222 0.222222
0.222222 0.444444 0.444444
0 0.666667 0.666667
0.333333 0 0
0.222222 0.111111 0.111111
0.111111 0.222222 0.222222
0 0.333333 0.333333
0 0 0
0 0 0
0 0 0
0 0 0
0.666667 0 0.333333
0.444444 0.222222 0.555556
0.222222 0.444444 0.777778
0 0.666667 1
0.444444 0 0.333333
0.296296 0.148148 0.481481
0.148148 0.296296 0.62963
0 0.444444 0.777778
0.222222 0 0.333333
0.148148 0.0740741 0.407407
0.0740741 0.148148 0.481481
0 0.222222 0.555556
0 0 0.333333
0 0 0.333333
0 0 0.333333
0 0 0.333333
0.333333 0 0.666667
0.222222 0.111111 0.777778
0.111111 0.222222 0.888889
0 0.333333 1
0.222222 0 0.666667
0.148148 0.0740741 0.740741
0.0740741 0.148148 0.814815
0 0.222222 0.888889
0.111111 0 0.666667
0.0740741 0.037037 0.703704
0.037037 0.0740741 0.740741
0 0.111111 0.777778
0 0 0.666667
0 0 0.666667
0 0 0.666667
0 0 0.666667
0 0 1
0 0 1
0 0 1
0 0 1
0 0 1
0 0 1
0 0 1
0 0 1
0 0 1
0 0 1
0 0 1
0 0 1
0 0 1
0 0 1
0 0 1
0 0 1
1 0 0
0.666667 0 0
0.333333 0 0
0 0 0
0.666667 0.333333 0.333333
0.444444 0.333333 0.333333
0.222222 0.333333 0.333333
0 0.333333 0.333333
0.333333 0.666667 0.666667
0.222222 0.666667 0.666667
0.111111 0.666667 0.666667
0 0.666667 0.666667
0 1 1
0 1 1
0 1 1
0 1 1
1 0.333333 0
0.777778 0.333333 0
0.555556 0.333333 0
0.333333 0.333333 0
0.777778 0.555556 0.222222
0.62963 0.555556 0.222222
0.481481 0.555556 0.222222
0.333333 0.555556 0.222222
0.555556 0.777778 0.444444
0.481481 0.777778 0.444444
0.407407 0.777778 0.444444
0.333333 0.777778 0.444444
0.333333 1 0.666667
0.333333 1 0.666667
0.333333 1 0.666667
0.333333 1 0.666667
1 0.666667 0
0.888889 0.666667 0
0.777778 0.666667 0
0.666667 0.666667 0
0.888889 0.777778 0.111111
0.814815 0.777778 0.111111
0.740741 0.777778 0.111111
0.666667 0.777778 0.111111
0.777778 0.888889 0.222222
0.740741 0.888889 0.222222
0.703704 0.888889 0.222222
0.666667 0.888889 0.222222
0.666667 1 0.333333
0.666667 1 0.333333
0.666667 1 0.333333
0.666667 1 0.333333
1 1 0
1 1 0
1 1 0
1 1 0
1 1 0
1 1 0
1 1 0
1 1 0
1 1 0
1 1 0
1 1 0
1 1 0
1 1 0
1 1 0
1 1 0
1 1 0
1 0 0
0.666667 0.333333 0.333333
0.333333 0.666667 0.666667
0 1 1
0.666667 0 0.333333
0.444444 0.222222 0.555556
0.222222 0.444444 0.777778
0 0.666667 1
0.333333 0 0.666667
0.222222 0.111111 0.777778
0.111111 0.222222 0.888889
0 0.333333 1
0 0 1
0 0 1
0 0 1
0 0 1
1 0 0.333333
0.777778 0.222222 0.555556
0.555556 0.444444 0.777778
0.333333 0.666667 1
0.777778 0 0.555556
0.62963 0.148148 0.703704
0.481481 0.296296 0.851852
0.333333 0.444444 1
0.555556 0 0.777778
0.481481 0.0740741 0.851852
0.407407 0.148148 0.925926
0.333333 0.222222 1
0.333333 0 1
0.333333 0 1
0.333333 0 1
0.333333 0 1
1 0 0.666667
0.888889 0.111111 0.777778
0.777778 0.222222 0.888889
0.666667 0.333333 1
0.888889 0 0.777778
0.814815 0.0740741 0.851852
0.740741 0.148148 0.925926
0.666667 0.222222 1
0.777778 0 0.888889
0.740741 0.037037 0.925926
0.703704 0.0740741 0.962963
0.666667 0.111111 1
0.666667 0 1
0.666667 0 1
0.666667 0 1
0.666667 0 1
1 0 1
1 0 1
1 0 1
1 0 1
1 0 1
1 0 1
1 0 1
1 0 1
1 0 1
1 0 1
1 0 1
1 0 1
1 0 1
1 0 1
1 0 1
1 0 1
1 0 0
1 0.333333 0
1 0.666667 0
1 1 0
0.666667 0.333333 0.333333
0.666667 0.555556 0.333333
0.666667 0.777778 0.333333
0.666667 1 0.333333
0.333333 0.666667 0.666667
0.333333 0.777778 0.666667
0.333333 0.888889 0.666667
0.333333 1 0.666667
0 1 1
0 1 1
0 1 1
0 1 1
1 0 0.333333
1 0.222222 0.333333
1 0.444444 0.333333
1 0.666667 0.333333
0.777778 0.222222 0.555556
0.777778 0.37037 0.555556
0.777778 0.518519 0.555556
0.777778 0.666667 0.555556
0.555556 0.444444 0.777778
0.555556 0.518519 0.777778
0.555556 0.592593 0.777778
0.555556 0.666667 0.777778
0.333333 0.666667 1
0.333333 0.666667 1
0.333333 0.666667 1
0.333333 0.666667 1
1 0 0.666667
1 0.111111 0.666667
1 0.222222 0.666667
1 0.333333 0.666667
0.888889 0.111111 0.777778
0.888889 0.185185 0.777778
0.888889 0.259259 0.777778
0.888889 0.333333 0.777778
0.777778 0.222222 0.888889
0.777778 0.259259 0.888889
0.777778 0.296296 0.888889
0.777778 0.333333 0.888889
0.666667 0.333333 1
0.666667 0.333333 1
0.666667 0.333333 1
0.666667 0.333333 1
1 0 1
1 0 1
1 0 1
1 0 1
1 0 1
1 0 1
1 0 1
1 0 1
1 0 1
1 0 1
1 0 1
1 0 1
1 0 1
1 0 1
1 0 1
1 0 1
0 1 1
0.333333 0.666667 1
0.666667 0.333333 1
1 0 1
0.333333 1 0.666667
0.555556 0.777778 0.666667
0.777778 0.555556 0.666667
1 0.333333 0.666667
0.666667 1 0.333333
0.777778 0.888889 0.333333
0.888889 0.777778 0.333333
1 0.666667 0.333333
1 1 0
1 1 0
1 1 0
1 1 0
0.333333 1 1
0.555556 0.777778 1
0.777778 0.555556 1
1 0.333333 1
0.555556 1 0.777778
0.703704 0.851852 0.777778
0.851852 0.703704 0.777778
1 0.555556 0.777778
0.777778 1 0.555556
0.851852 0.925926 0.555556
0.925926 0.851852 0.555556
1 0.777778 0.555556
1 1 0.333333
1 1 0.333333
1 1 0.333333
1 1 0.333333
0.666667 1 1
0.777778 0.888889 1
0.888889 0.777778 1
1 0.666667 1
0.777778 1 0.888889
0.851852 0.925926 0.888889
0.925926 0.851852 0.888889
1 0.777778 0.888889
0.888889 1 0.777778
0.925926 0.962963 0.777778
0.962963 0.925926 0.777778
1 0.888889 0.777778
1 1 0.666667
1 1 0.666667
1 1 0.666667
1 1 0.666667
1 1 1
1 1 1
1 1 1
1 1 1
1 1 1
1 1 1
1 1 1
1 1 1
1 1 1
1 1 1
1 1 1
1 1 1
1 1 1
1 1 1
1 1 1
1 1 1

CELLS 162 1458
8 0 1 5 4 16 17 21 20 
8 1 2 6 5 17 18 22 21 
8 2 3 7 6 18 19 23 22 
8 4 5 9 8 20 21 25 24 
8 5 6 10 9 21 22 26 25 
8 6 7 11 10 22 23 27 26 
8 8 9 13 12 24 25 29 28 
8 9 10 14 13 25 26 30 29 
8 10 11 15 14 26 27 31 30 
8 16 17 21 20 32 33 37 36 
8 17 18 22 21 33 34 38 37 
8 18 19 23 22 34 35 39 38 
8 20 21 25 24 36 37 41 40 
8 21 22 26 25 37 38 42 41 
8 22 23 27 26 38 39 43 42 
8 24 25 29 28 40 41 45 44 
8 25 26 30 29 41 42 46 45 
8 26 27 31 30 42 43 47 46 
8 32 33 37 36 48 49 53 52 
8 33 34 38 37 49 50 54 53 
8 34 35 39 38 50 51 55 54 
8 36 37 41 40 52 53 57 56 
8 37 38 42 41 53 54 58 57 
8 38 39 43 42 54 55 59 58 
8 40 41 45 44 56 57 61 60 
8 41 42 46 45 57 58 62 61 
8 42 43 47 46 58 59 63 62 
8 64 65 69 68 80 81 85 84 
8 65 66 70 69 81 82 86 85 
8 66 67 71 70 82 83 87 86 
8 68 69 73 72 84 85 89 88 
8 69 70 74 73 85 86 90 89 
8 70 71 75 74 86 87 91 90 
8 72 73 77 76 88 89 93 92 
8 73 74 78 77 89 90 94 93 
8 74 75 79 78 90 91 95 94 
8 80 81 85 84 96 97 101 100 
8 81 82 86 85 97 98 102 101 
8 82 83 87 86 98 99 103 102 
8 84 85 89 88 100 101 105 104 
8 85 86 90 89 101 102 106 105 
8 86 87 91 90 102 103 107 106 
8 88 89 93 92 104 105 109 108 
8 89 90 94 93 105 106 110 109 
8 90 91 95 94 106 107 111 110 
8 96 97 101 100 112 113 117 116 
8 97 98 102 101 113 114 118 117 
8 98 99 103 102 114 115 119 118 
8 100 101 105 104 116 117 121 120 
8 101 102 106 105 117 118 122 121 
8 102 103 107 106 118 119 123 122 
8 104 105 109 108 120 121 125 124 
8 105 106 110 109 121 122 126 125 
8 106 107 111 110 122 123 127 126 
8 128 129 133 132 144 145 149 148 
8 129 130 134 133 145 146 150 149 
8 130 131 135 134 146 147 151 150 
8 132 133 137 136 148 149 153 152 
8 133 134 138 137 149 150 154 153 
8 134 135 139 138 150 151 155 154 
8 136 137 141 140 152 153 157 156 
8 137 138 142 141 153 154 158 157 
8 138 139 143 142 154 155 159 158 
8 144 145 149 148 160 161 165 164 
8 145 146 150 149 161 162 166 165 
8 146 147 151 150 162 163 167 166 
8 148 149 153 152 164 165 169 168 
8 149 150 154 153 165 166 170 169 
8 150 151 155 154 166 167 171 170 
8 152 153 157 156 168 169 173 172 
8 153 154 158 157 169 170 174 173 
8 154 155 159 158 170 171 175 174 
8 160 161 165 164 176 177 181 180 
8 161 162 166 165 177 178 182 181 
8 162 163 167 166 178 179 183 182 
8 164 165 169 168 180 181 185 184 
8 165 166 170 169 181 182 186 185 
8 166 167 171 170 182 183 187 186 
8 168 169 173 172 184 185 189 188 
8 169 170 174 173 185 186 190 189 
8 170 171 175 174 186 187 191 190 
8 192 193 197 196 208 209 213 212 
8 193 194 198 197 209 210 214 213 
8 194 195 199 198 210 211 215 214 
8 196 197 201 200 212 213 217 216 
8 197 198 202 201 213 214 218 217 
8 198 199 203 202 214 215 219 218 
8 200 201 205 204 216 217 221 220 
8 201 202 206 205 217 218 222 221 
8 202 203 207 206 218 219 223 222 
8 208 209 213 212 224 225 229 228 
8 209 210 214 213 225 226 230 229 
8 210 211 215 214 226 227 231 230 
8 212 213 217 216 228 229 233 232 
8 213 214 218 217 229 230 234 233 
8 214 215 219 218 230 231 235 234 
8 216 217 221 220 232 233 237 236 
8 217 218 222 221 233 234 238 237 
8 218 219 223 222 234 235 239 238 
8 224 225 229 228 240 241 245 244 
8 225 226 230 229 241 242 246 245 
8 226 227 231 230 242 243 247 246 
8 228 229 233 232 244 245 249 248 
8 229 230 234 233 245 246 250 249 
8 230 231 235 234 246 247 251 250 
8 232 233 237 236 248 249 253 252 
8 233 234 238 237 249 250 254 253 
8 234 235 239 238 250 251 255 254 
8 256 257 261 260 272 273 277 276 
8 257 258 262 261 273 274 278 277 
8 258 259 263 262 274 275 279 278 
8 260 261 265 264 276 277 281 280 
8 261 262 266 265 277 278 282 281 
8 262 263 267 266 278 279 283 282 
8 264 265 269 268 280 281 285 284 
8 265 266 270 269 281 282 286 285 
8 266 267 271 270 282 283 287 286 
8 272 273 277 276 288 289 293 292 
8 273 274 278 277 289 290 294 293 
8 274 275 279 278 290 291 295 294 
8 276 277 281 280 292 293 297 296 
8 277 278 282 281 293 294 298 297 
8 278 279 283 282 294 295 299 298 
8 280 281 285 284 296 297 301 300 
8 281 282 286 285 297 298 302 301 
8 282 283 287 286 298 299 303 302 
8 288 289 293 292 304 305 309 308 
8 289 290 294 293 305 306 310 309 
8 290 291 295 294 306 307 311 310 
8 292 293 297 296 308 309 313 312 
8 293 294 298 297 309 310 314 313 
8 294 295 299 298 310 311 315 314 
8 296 297 301 300 312 313 317 316 
8 297 298 302 301 313 314 318 317 
8 298 299 303 302 314 315 319 318 
8 320 321 325 324 336 337 341 340 
8 321 322 326 325 337 338 342 341 
8 322 323 327 326 338 339 343 342 
8 324 325 329 328 340 341 345 344 
8 325 326 330 329 341 342 346 345 
8 326 327 331 330 342 343 347 346 
8 328 329 333 332 344 345 349 348 
8 329 330 334 333 345 346 350 349 
8 330 331 335 334 346 347 351 350 
8 336 337 341 340 352 353 357 356 
8 337 338 342 341 353 354 358 357 
8 338 339 343 342 354 355 359 358 
8 340 341 345 344 356 357 361 360 
8 341 342 346 345 357 358 362 361 
8 342 343 347 346 358 359 363 362 
8 344 345 349 348 360 361 365 364 
8 345 346 350 349 361 362 366 365 
8 346 347 351 350 362 363 367 366 
8 352 353 357 356 368 369 373 372 
8 353 354 358 357 369 370 374 373 
8 354 355 359 358 370 371 375 374 
8 356 357 361 360 372 373 377 376 
8 357 358 362 361 373 374 378 377 
8 358 359 363 362 374 375 379 378 
8 360 361 365 364 376 377 381 380 
8 361 362 366 365 377 378 382 381 
8 362 363 367 366 378 379 383 382 
CELL_TYPES 162
12
12
12
12
12
12
12
12
12
12
12
12
12
12
12
12
12
12
12
12
12
12
12
12
12
12
12
12
12
12
12
12
12
12
12
12
12
12
12
12
12
12
12
12
12
12
12
12
12
12
12
12
12
12
12
12
12
12
12
12
12
12
12
12
12
12
12
12
12
12
12
12
12
12
12
12
12
12
12
12
12
12
12
12
12
12
12
12
12
12
12
12
12
12
12
12
12
12
12
12
12
12
12
12
12
12
12
12
12
12
12
12
12
12
12
12
12
12
12
12
12
12
12
12
12
12
12
12
12
12
12
12
12
12
12
12
12
12
12
12
12
12
12
12
12
12
12
12
12
12
12
12
12
12
12
12
12
12
12
12
12
12

POINT_DATA 384
SCALARS SolU double 1
LOOKUP_TABLE default
0
0
0
0
0
0
0
0
0
0
0
0
0
0
0
0
0
0
0
0
0
0
0
0
0
0
0
0
0
0
0
0
0
0
0
0
0
0
0
0
0
0
0
0
0
0
0
0
0
0
0
0
0
0
0
0
0
0
0
0
0
0
0
0
0
0.0086594
0.0086594
0
-7.2104e-19
0.00384862
0.00384862
-7.2104e-19
0
0.000962155
0.000962155
-7.2104e-19
0
0
0
0
-1.08156e-18
0.00384862
0.00384862
-1.08156e-18
2.40347e-19
0.0017105
0.0017105
-1.68243e-18
-6.00867e-19
0.000427625
0.000427625
-1.08156e-18
1.87621e-34
1.87621e-34
1.87621e-34
1.87621e-34
-3.6052e-19
0.000962155
0.000962155
-1.08156e-18
0
0.000427625
0.000427625
-4.80693e-19
-2.40347e-19
0.000106906
0.000106906
-2.40347e-19
2.70174e-34
2.70174e-34
2.70174e-34
2.70174e-34
1.20077e-34
1.20077e-34
1.20077e-34
1.20077e-34
1.20077e-34
1.20077e-34
1.20077e-34
1.20077e-34
1.20077e-34
1.20077e-34
1.20077e-34
1.20077e-34
1.20077e-34
1.20077e-34
1.20077e-34
1.20077e-34
0
0
0
0
0.0086594
0.00577293
0.00288647
-3.6052e-19
0.0086594
0.00577293
0.00288647
-1.44208e-18
0
0
0
0
6.85942e-19
4.57295e-19
2.28647e-19
-4.28371e-35
0.00634153
0.00422769
0.00211384
-1.3861e-18
0.00634153
0.00422769
0.00211384
-3.56426e-18
-2.97022e-18
-2.97022e-18
-2.97022e-18
-2.97022e-18
9.55591e-19
6.37061e-19
3.1853e-19
-2.38707e-34
0.00220861
0.00147241
0.000736203
-5.51711e-19
0.00220861
0.00147241
0.000736203
-1.10342e-18
-2.4827e-18
-2.4827e-18
-2.4827e-18
-2.4827e-18
-4.08087e-34
-4.08087e-34
-4.08087e-34
-4.08087e-34
-4.08087e-34
-4.08087e-34
-4.08087e-34
-4.08087e-34
-4.08087e-34
-4.08087e-34
-4.08087e-34
-4.08087e-34
-4.08087e-34
-4.08087e-34
-4.08087e-34
-4.08087e-34
0
0.0086594
0.0086594
0
-7.2104e-19
0.00384862
0.00384862
-7.2104e-19
0
0.000962155
0.000962155
-7.2104e-19
0
0
0
0
-2.00891e-18
0.00714852
0.00714852
-2.00891e-18
4.46425e-19
0.00317712
0.00317712
-3.12498e-18
-1.11606e-18
0.00079428
0.00079428
-2.00891e-18
3.48491e-34
3.48491e-34
3.48491e-34
3.48491e-34
-9.78756e-19
0.0026121
0.0026121
-2.93627e-18
0
0.00116093
0.00116093
-1.30501e-18
-6.52504e-19
0.000290234
0.000290234
-6.52504e-19
7.3348e-34
7.3348e-34
7.3348e-34
7.3348e-34
4.28948e-34
4.28948e-34
4.28948e-34
4.28948e-34
4.28948e-34
4.28948e-34
4.28948e-34
4.28948e-34
4.28948e-34
4.28948e-34
4.28948e-34
4.28948e-34
4.28948e-34
4.28948e-34
4.28948e-34
4.28948e-34
0
0
0
0
0.0086594
0.00826584
0.00537937
-8.27566e-19
0.0086594
0.00701939
0.00413292
-2.37617e-18
0
0
0
0
7.73231e-19
9.00248e-19
9.07421e-19
7.94751e-19
0.00714852
0.00795347
0.00801979
0.00734746
0.00714852
0.00758415
0.00765047
0.00734746
-6.78956e-18
-6.78956e-18
-6.78956e-18
-6.78956e-18
1.13017e-18
1.3432e-18
1.49631e-18
1.5895e-18
0.0026121
0.00305831
0.00341219
0.00367373
0.0026121
0.00301214
0.00336602
0.00367373
-7.06591e-18
-7.06591e-18
-7.06591e-18
-7.06591e-18
-1.28942e-33
-1.28942e-33
-1.28942e-33
-1.28942e-33
-1.28942e-33
-1.28942e-33
-1.28942e-33
-1.28942e-33
-1.28942e-33
-1.28942e-33
-1.28942e-33
-1.28942e-33
-1.28942e-33
-1.28942e-33
-1.28942e-33
-1.28942e-33
0
0
0
0
-1.37655e-18
0.00734746
0.00734746
-1.37655e-18
0
0.00367373
0.00367373
-2.7531e-18
0
0
0
0
-9.92644e-35
3.53222e-19
3.53222e-19
-9.92644e-35
3.059e-19
0.00217703
0.00217703
-2.1413e-18
-1.5295e-18
0.00108851
0.00108851
-2.7531e-18
7.16379e-34
7.16379e-34
7.16379e-34
7.16379e-34
-6.61763e-35
1.76611e-19
1.76611e-19
-1.98529e-34
0
0.000272128
0.000272128
-3.059e-19
-3.059e-19
0.000136064
0.000136064
-3.059e-19
5.15793e-34
5.15793e-34
5.15793e-34
5.15793e-34
4.40823e-50
4.40823e-50
4.40823e-50
4.40823e-50
4.40823e-50
4.40823e-50
4.40823e-50
4.40823e-50
4.40823e-50
4.40823e-50
4.40823e-50
4.40823e-50
4.40823e-50
4.40823e-50
4.40823e-50
4.40823e-50

